M 0.00000 0 (374.00, 192.00, 0.00), (111.00, 468.00), 5.00
M 0.00000 1 (264.00, 299.00, 0.00), (243.00, 398.00), 5.00
M 0.00000 2 (468.00, 352.00, 0.00), (381.00, 467.00), 5.00
M 0.00000 3 (118.00, 303.00, 0.00), (270.00, 457.00), 5.00
M 0.00000 4 (338.00, 128.00, 0.00), (234.00, 147.00), 5.00
M 0.00000 5 (169.00, 329.00, 0.00), (65.00, 186.00), 5.00
M 0.00000 6 (442.00, 354.00, 0.00), (195.00, 240.00), 5.00
M 0.00000 7 (38.00, 205.00, 0.00), (148.00, 249.00), 5.00
M 0.00000 8 (168.00, 91.00, 0.00), (15.00, 188.00), 5.00
M 0.00000 9 (60.00, 392.00, 0.00), (21.00, 23.00), 5.00
M 0.00000 10 (320.00, 82.00, 0.00), (441.00, 16.00), 5.00
M 0.00000 11 (454.00, 409.00, 0.00), (50.00, 10.00), 5.00
M 0.00000 12 (262.00, 89.00, 0.00), (20.00, 13.00), 5.00
M 0.00000 13 (271.00, 295.00, 0.00), (71.00, 330.00), 5.00
M 0.00000 14 (164.00, 44.00, 0.00), (388.00, 419.00), 5.00
M 0.00000 15 (194.00, 335.00, 0.00), (325.00, 194.00), 5.00
s 0.009276431 _0_ RTR  --- 0 message 32 [0 0 0 0] ------- [0:255 -1:255 32 0] 
r 0.010576676 _4_ RTR  --- 0 message 32 [0 ffffffff 0 800] ------- [0:255 -1:255 32 0] 
r 0.010576840 _10_ RTR  --- 0 message 32 [0 ffffffff 0 800] ------- [0:255 -1:255 32 0] 
r 0.010576917 _13_ RTR  --- 0 message 32 [0 ffffffff 0 800] ------- [0:255 -1:255 32 0] 
r 0.010576939 _12_ RTR  --- 0 message 32 [0 ffffffff 0 800] ------- [0:255 -1:255 32 0] 
r 0.010576943 _1_ RTR  --- 0 message 32 [0 ffffffff 0 800] ------- [0:255 -1:255 32 0] 
r 0.010577017 _6_ RTR  --- 0 message 32 [0 ffffffff 0 800] ------- [0:255 -1:255 32 0] 
r 0.010577050 _2_ RTR  --- 0 message 32 [0 ffffffff 0 800] ------- [0:255 -1:255 32 0] 
r 0.010577196 _8_ RTR  --- 0 message 32 [0 ffffffff 0 800] ------- [0:255 -1:255 32 0] 
r 0.010577197 _15_ RTR  --- 0 message 32 [0 ffffffff 0 800] ------- [0:255 -1:255 32 0] 
r 0.010577202 _11_ RTR  --- 0 message 32 [0 ffffffff 0 800] ------- [0:255 -1:255 32 0] 
r 0.010577253 _5_ RTR  --- 0 message 32 [0 ffffffff 0 800] ------- [0:255 -1:255 32 0] 
s 0.036479607 _2_ RTR  --- 1 message 32 [0 0 0 0] ------- [2:255 -1:255 32 0] 
r 0.037519694 _6_ RTR  --- 1 message 32 [0 ffffffff 2 800] ------- [2:255 -1:255 32 0] 
r 0.037519802 _11_ RTR  --- 1 message 32 [0 ffffffff 2 800] ------- [2:255 -1:255 32 0] 
r 0.037520225 _0_ RTR  --- 1 message 32 [0 ffffffff 2 800] ------- [2:255 -1:255 32 0] 
r 0.037520291 _13_ RTR  --- 1 message 32 [0 ffffffff 2 800] ------- [2:255 -1:255 32 0] 
r 0.037520309 _1_ RTR  --- 1 message 32 [0 ffffffff 2 800] ------- [2:255 -1:255 32 0] 
s 0.090775603 _13_ RTR  --- 2 message 32 [0 0 0 0] ------- [13:255 -1:255 32 0] 
r 0.091775630 _1_ RTR  --- 2 message 32 [0 ffffffff d 800] ------- [13:255 -1:255 32 0] 
r 0.091775890 _15_ RTR  --- 2 message 32 [0 ffffffff d 800] ------- [13:255 -1:255 32 0] 
r 0.091775961 _5_ RTR  --- 2 message 32 [0 ffffffff d 800] ------- [13:255 -1:255 32 0] 
r 0.091776089 _0_ RTR  --- 2 message 32 [0 ffffffff d 800] ------- [13:255 -1:255 32 0] 
r 0.091776112 _3_ RTR  --- 2 message 32 [0 ffffffff d 800] ------- [13:255 -1:255 32 0] 
r 0.091776203 _4_ RTR  --- 2 message 32 [0 ffffffff d 800] ------- [13:255 -1:255 32 0] 
r 0.091776206 _6_ RTR  --- 2 message 32 [0 ffffffff d 800] ------- [13:255 -1:255 32 0] 
r 0.091776288 _2_ RTR  --- 2 message 32 [0 ffffffff d 800] ------- [13:255 -1:255 32 0] 
r 0.091776291 _12_ RTR  --- 2 message 32 [0 ffffffff d 800] ------- [13:255 -1:255 32 0] 
r 0.091776322 _11_ RTR  --- 2 message 32 [0 ffffffff d 800] ------- [13:255 -1:255 32 0] 
r 0.091776334 _10_ RTR  --- 2 message 32 [0 ffffffff d 800] ------- [13:255 -1:255 32 0] 
r 0.091776365 _8_ RTR  --- 2 message 32 [0 ffffffff d 800] ------- [13:255 -1:255 32 0] 
r 0.091776376 _9_ RTR  --- 2 message 32 [0 ffffffff d 800] ------- [13:255 -1:255 32 0] 
r 0.091776433 _7_ RTR  --- 2 message 32 [0 ffffffff d 800] ------- [13:255 -1:255 32 0] 
s 0.184643595 _3_ RTR  --- 3 message 32 [0 0 0 0] ------- [3:255 -1:255 32 0] 
r 0.185823780 _5_ RTR  --- 3 message 32 [0 ffffffff 3 800] ------- [3:255 -1:255 32 0] 
r 0.185823868 _15_ RTR  --- 3 message 32 [0 ffffffff 3 800] ------- [3:255 -1:255 32 0] 
r 0.185823946 _9_ RTR  --- 3 message 32 [0 ffffffff 3 800] ------- [3:255 -1:255 32 0] 
r 0.185824017 _7_ RTR  --- 3 message 32 [0 ffffffff 3 800] ------- [3:255 -1:255 32 0] 
r 0.185824079 _1_ RTR  --- 3 message 32 [0 ffffffff 3 800] ------- [3:255 -1:255 32 0] 
r 0.185824100 _13_ RTR  --- 3 message 32 [0 ffffffff 3 800] ------- [3:255 -1:255 32 0] 
r 0.185824320 _8_ RTR  --- 3 message 32 [0 ffffffff 3 800] ------- [3:255 -1:255 32 0] 
s 0.234389987 _15_ RTR  --- 4 message 32 [0 0 0 0] ------- [15:255 -1:255 32 0] 
r 0.235350077 _5_ RTR  --- 4 message 32 [0 ffffffff f 800] ------- [15:255 -1:255 32 0] 
r 0.235350243 _1_ RTR  --- 4 message 32 [0 ffffffff f 800] ------- [15:255 -1:255 32 0] 
r 0.235350259 _3_ RTR  --- 4 message 32 [0 ffffffff f 800] ------- [15:255 -1:255 32 0] 
r 0.235350268 _13_ RTR  --- 4 message 32 [0 ffffffff f 800] ------- [15:255 -1:255 32 0] 
r 0.235350474 _9_ RTR  --- 4 message 32 [0 ffffffff f 800] ------- [15:255 -1:255 32 0] 
r 0.235350660 _7_ RTR  --- 4 message 32 [0 ffffffff f 800] ------- [15:255 -1:255 32 0] 
r 0.235350745 _0_ RTR  --- 4 message 32 [0 ffffffff f 800] ------- [15:255 -1:255 32 0] 
r 0.235350800 _8_ RTR  --- 4 message 32 [0 ffffffff f 800] ------- [15:255 -1:255 32 0] 
r 0.235350810 _6_ RTR  --- 4 message 32 [0 ffffffff f 800] ------- [15:255 -1:255 32 0] 
s 0.329382798 _12_ RTR  --- 5 message 32 [0 0 0 0] ------- [12:255 -1:255 32 0] 
r 0.330303003 _10_ RTR  --- 5 message 32 [0 ffffffff c 800] ------- [12:255 -1:255 32 0] 
r 0.330303084 _4_ RTR  --- 5 message 32 [0 ffffffff c 800] ------- [12:255 -1:255 32 0] 
r 0.330303111 _8_ RTR  --- 5 message 32 [0 ffffffff c 800] ------- [12:255 -1:255 32 0] 
r 0.330303147 _14_ RTR  --- 5 message 32 [0 ffffffff c 800] ------- [12:255 -1:255 32 0] 
r 0.330303310 _0_ RTR  --- 5 message 32 [0 ffffffff c 800] ------- [12:255 -1:255 32 0] 
r 0.330303488 _13_ RTR  --- 5 message 32 [0 ffffffff c 800] ------- [12:255 -1:255 32 0] 
r 0.330303505 _1_ RTR  --- 5 message 32 [0 ffffffff c 800] ------- [12:255 -1:255 32 0] 
s 0.478666153 _8_ RTR  --- 6 message 32 [0 0 0 0] ------- [8:255 -1:255 32 0] 
r 0.480066307 _14_ RTR  --- 6 message 32 [0 ffffffff 8 800] ------- [8:255 -1:255 32 0] 
r 0.480066466 _12_ RTR  --- 6 message 32 [0 ffffffff 8 800] ------- [8:255 -1:255 32 0] 
r 0.480066675 _10_ RTR  --- 6 message 32 [0 ffffffff 8 800] ------- [8:255 -1:255 32 0] 
r 0.480066718 _7_ RTR  --- 6 message 32 [0 ffffffff 8 800] ------- [8:255 -1:255 32 0] 
r 0.480066731 _4_ RTR  --- 6 message 32 [0 ffffffff 8 800] ------- [8:255 -1:255 32 0] 
r 0.480066878 _3_ RTR  --- 6 message 32 [0 ffffffff 8 800] ------- [8:255 -1:255 32 0] 
r 0.480066912 _13_ RTR  --- 6 message 32 [0 ffffffff 8 800] ------- [8:255 -1:255 32 0] 
r 0.480066920 _0_ RTR  --- 6 message 32 [0 ffffffff 8 800] ------- [8:255 -1:255 32 0] 
r 0.480066922 _1_ RTR  --- 6 message 32 [0 ffffffff 8 800] ------- [8:255 -1:255 32 0] 
r 0.480066936 _5_ RTR  --- 6 message 32 [0 ffffffff 8 800] ------- [8:255 -1:255 32 0] 
r 0.480066963 _15_ RTR  --- 6 message 32 [0 ffffffff 8 800] ------- [8:255 -1:255 32 0] 
s 0.618266199 _10_ RTR  --- 7 message 32 [0 0 0 0] ------- [10:255 -1:255 32 0] 
r 0.619586364 _4_ RTR  --- 7 message 32 [0 ffffffff a 800] ------- [10:255 -1:255 32 0] 
r 0.619586413 _12_ RTR  --- 7 message 32 [0 ffffffff a 800] ------- [10:255 -1:255 32 0] 
r 0.619586612 _0_ RTR  --- 7 message 32 [0 ffffffff a 800] ------- [10:255 -1:255 32 0] 
r 0.619586725 _8_ RTR  --- 7 message 32 [0 ffffffff a 800] ------- [10:255 -1:255 32 0] 
r 0.619586735 _14_ RTR  --- 7 message 32 [0 ffffffff a 800] ------- [10:255 -1:255 32 0] 
r 0.619586939 _13_ RTR  --- 7 message 32 [0 ffffffff a 800] ------- [10:255 -1:255 32 0] 
r 0.619586963 _1_ RTR  --- 7 message 32 [0 ffffffff a 800] ------- [10:255 -1:255 32 0] 
s 0.632609782 _6_ RTR  --- 8 message 32 [0 0 0 0] ------- [6:255 -1:255 32 0] 
r 0.633909872 _2_ RTR  --- 8 message 32 [0 ffffffff 6 800] ------- [6:255 -1:255 32 0] 
r 0.633909967 _11_ RTR  --- 8 message 32 [0 ffffffff 6 800] ------- [6:255 -1:255 32 0] 
r 0.633910356 _0_ RTR  --- 8 message 32 [0 ffffffff 6 800] ------- [6:255 -1:255 32 0] 
r 0.633910384 _13_ RTR  --- 8 message 32 [0 ffffffff 6 800] ------- [6:255 -1:255 32 0] 
r 0.633910392 _1_ RTR  --- 8 message 32 [0 ffffffff 6 800] ------- [6:255 -1:255 32 0] 
r 0.633910595 _15_ RTR  --- 8 message 32 [0 ffffffff 6 800] ------- [6:255 -1:255 32 0] 
r 0.633910606 _4_ RTR  --- 8 message 32 [0 ffffffff 6 800] ------- [6:255 -1:255 32 0] 
s 0.891113321 _4_ RTR  --- 9 message 32 [0 0 0 0] ------- [4:255 -1:255 32 0] 
r 0.892093487 _10_ RTR  --- 9 message 32 [0 ffffffff 4 800] ------- [4:255 -1:255 32 0] 
r 0.892093575 _0_ RTR  --- 9 message 32 [0 ffffffff 4 800] ------- [4:255 -1:255 32 0] 
r 0.892093609 _12_ RTR  --- 9 message 32 [0 ffffffff 4 800] ------- [4:255 -1:255 32 0] 
r 0.892093898 _8_ RTR  --- 9 message 32 [0 ffffffff 4 800] ------- [4:255 -1:255 32 0] 
r 0.892093921 _13_ RTR  --- 9 message 32 [0 ffffffff 4 800] ------- [4:255 -1:255 32 0] 
r 0.892093940 _14_ RTR  --- 9 message 32 [0 ffffffff 4 800] ------- [4:255 -1:255 32 0] 
r 0.892093948 _1_ RTR  --- 9 message 32 [0 ffffffff 4 800] ------- [4:255 -1:255 32 0] 
r 0.892094136 _15_ RTR  --- 9 message 32 [0 ffffffff 4 800] ------- [4:255 -1:255 32 0] 
r 0.892094143 _6_ RTR  --- 9 message 32 [0 ffffffff 4 800] ------- [4:255 -1:255 32 0] 
s 1.000000000 _0_ AGT  --- 10 cbr 512 [0 0 0 0] ------- [0:0 8:0 32 0] [0] 0 0
r 1.000000000 _0_ RTR  --- 10 cbr 512 [0 0 0 0] ------- [0:0 8:0 32 0] [0] 0 0
s 1.000000000 _0_ RTR  --- 10 cbr 532 [0 0 0 0] ------- [0:0 8:0 32 8] [0] 0 0
s 1.000000000 _1_ AGT  --- 11 cbr 512 [0 0 0 0] ------- [1:0 9:0 32 0] [0] 0 0
r 1.000000000 _1_ RTR  --- 11 cbr 512 [0 0 0 0] ------- [1:0 9:0 32 0] [0] 0 0
s 1.000000000 _2_ AGT  --- 12 cbr 512 [0 0 0 0] ------- [2:0 10:0 32 0] [0] 0 0
r 1.000000000 _2_ RTR  --- 12 cbr 512 [0 0 0 0] ------- [2:0 10:0 32 0] [0] 0 0
s 1.000000000 _3_ AGT  --- 13 cbr 512 [0 0 0 0] ------- [3:0 11:0 32 0] [0] 0 0
r 1.000000000 _3_ RTR  --- 13 cbr 512 [0 0 0 0] ------- [3:0 11:0 32 0] [0] 0 0
s 1.000000000 _4_ AGT  --- 14 cbr 512 [0 0 0 0] ------- [4:0 12:0 32 0] [0] 0 0
r 1.000000000 _4_ RTR  --- 14 cbr 512 [0 0 0 0] ------- [4:0 12:0 32 0] [0] 0 0
s 1.000000000 _4_ RTR  --- 14 cbr 532 [0 0 0 0] ------- [4:0 12:0 32 12] [0] 0 0
s 1.000000000 _5_ AGT  --- 15 cbr 512 [0 0 0 0] ------- [5:0 13:0 32 0] [0] 0 0
r 1.000000000 _5_ RTR  --- 15 cbr 512 [0 0 0 0] ------- [5:0 13:0 32 0] [0] 0 0
s 1.000000000 _5_ RTR  --- 15 cbr 532 [0 0 0 0] ------- [5:0 13:0 32 13] [0] 0 0
s 1.000000000 _6_ AGT  --- 16 cbr 512 [0 0 0 0] ------- [6:0 14:0 32 0] [0] 0 0
r 1.000000000 _6_ RTR  --- 16 cbr 512 [0 0 0 0] ------- [6:0 14:0 32 0] [0] 0 0
s 1.000000000 _7_ AGT  --- 17 cbr 512 [0 0 0 0] ------- [7:0 15:0 32 0] [0] 0 0
r 1.000000000 _7_ RTR  --- 17 cbr 512 [0 0 0 0] ------- [7:0 15:0 32 0] [0] 0 0
s 1.000000000 _7_ RTR  --- 17 cbr 532 [0 0 0 0] ------- [7:0 15:0 32 15] [0] 0 0
r 1.011698158 _13_ AGT  --- 15 cbr 532 [13a d 5 800] ------- [5:0 13:0 32 13] [0] 1 0
r 1.020170035 _8_ AGT  --- 10 cbr 532 [13a 8 0 800] ------- [0:0 8:0 32 8] [0] 1 0
r 1.027880076 _12_ AGT  --- 14 cbr 532 [13a c 4 800] ------- [4:0 12:0 32 12] [0] 1 0
r 1.033772774 _15_ AGT  --- 17 cbr 532 [13a f 7 800] ------- [7:0 15:0 32 15] [0] 1 0
s 1.100000000 _0_ AGT  --- 18 cbr 512 [0 0 0 0] ------- [0:0 8:0 32 0] [1] 0 0
r 1.100000000 _0_ RTR  --- 18 cbr 512 [0 0 0 0] ------- [0:0 8:0 32 0] [1] 0 0
s 1.100000000 _0_ RTR  --- 18 cbr 532 [0 0 0 0] ------- [0:0 8:0 32 8] [1] 0 0
s 1.100000000 _1_ AGT  --- 19 cbr 512 [0 0 0 0] ------- [1:0 9:0 32 0] [1] 0 0
r 1.100000000 _1_ RTR  --- 19 cbr 512 [0 0 0 0] ------- [1:0 9:0 32 0] [1] 0 0
s 1.100000000 _2_ AGT  --- 20 cbr 512 [0 0 0 0] ------- [2:0 10:0 32 0] [1] 0 0
r 1.100000000 _2_ RTR  --- 20 cbr 512 [0 0 0 0] ------- [2:0 10:0 32 0] [1] 0 0
s 1.100000000 _3_ AGT  --- 21 cbr 512 [0 0 0 0] ------- [3:0 11:0 32 0] [1] 0 0
r 1.100000000 _3_ RTR  --- 21 cbr 512 [0 0 0 0] ------- [3:0 11:0 32 0] [1] 0 0
s 1.100000000 _4_ AGT  --- 22 cbr 512 [0 0 0 0] ------- [4:0 12:0 32 0] [1] 0 0
r 1.100000000 _4_ RTR  --- 22 cbr 512 [0 0 0 0] ------- [4:0 12:0 32 0] [1] 0 0
s 1.100000000 _4_ RTR  --- 22 cbr 532 [0 0 0 0] ------- [4:0 12:0 32 12] [1] 0 0
s 1.100000000 _5_ AGT  --- 23 cbr 512 [0 0 0 0] ------- [5:0 13:0 32 0] [1] 0 0
r 1.100000000 _5_ RTR  --- 23 cbr 512 [0 0 0 0] ------- [5:0 13:0 32 0] [1] 0 0
s 1.100000000 _5_ RTR  --- 23 cbr 532 [0 0 0 0] ------- [5:0 13:0 32 13] [1] 0 0
s 1.100000000 _6_ AGT  --- 24 cbr 512 [0 0 0 0] ------- [6:0 14:0 32 0] [1] 0 0
r 1.100000000 _6_ RTR  --- 24 cbr 512 [0 0 0 0] ------- [6:0 14:0 32 0] [1] 0 0
s 1.100000000 _7_ AGT  --- 25 cbr 512 [0 0 0 0] ------- [7:0 15:0 32 0] [1] 0 0
r 1.100000000 _7_ RTR  --- 25 cbr 512 [0 0 0 0] ------- [7:0 15:0 32 0] [1] 0 0
s 1.100000000 _7_ RTR  --- 25 cbr 532 [0 0 0 0] ------- [7:0 15:0 32 15] [1] 0 0
r 1.105558306 _8_ AGT  --- 18 cbr 532 [13a 8 0 800] ------- [0:0 8:0 32 8] [1] 1 0
r 1.111380113 _13_ AGT  --- 23 cbr 532 [13a d 5 800] ------- [5:0 13:0 32 13] [1] 1 0
r 1.117651489 _12_ AGT  --- 22 cbr 532 [13a c 4 800] ------- [4:0 12:0 32 12] [1] 1 0
s 1.118396691 _1_ RTR  --- 26 message 32 [0 0 0 0] ------- [1:255 -1:255 32 0] 
r 1.123504181 _15_ AGT  --- 25 cbr 532 [13a f 7 800] ------- [7:0 15:0 32 15] [1] 1 0
r 1.124928444 _13_ RTR  --- 26 message 32 [0 ffffffff 1 800] ------- [1:255 -1:255 32 0] 
r 1.124928648 _15_ RTR  --- 26 message 32 [0 ffffffff 1 800] ------- [1:255 -1:255 32 0] 
r 1.124928745 _5_ RTR  --- 26 message 32 [0 ffffffff 1 800] ------- [1:255 -1:255 32 0] 
r 1.124928884 _3_ RTR  --- 26 message 32 [0 ffffffff 1 800] ------- [1:255 -1:255 32 0] 
r 1.124928923 _0_ RTR  --- 26 message 32 [0 ffffffff 1 800] ------- [1:255 -1:255 32 0] 
r 1.124929016 _6_ RTR  --- 26 message 32 [0 ffffffff 1 800] ------- [1:255 -1:255 32 0] 
r 1.124929044 _4_ RTR  --- 26 message 32 [0 ffffffff 1 800] ------- [1:255 -1:255 32 0] 
r 1.124929109 _2_ RTR  --- 26 message 32 [0 ffffffff 1 800] ------- [1:255 -1:255 32 0] 
r 1.124929123 _11_ RTR  --- 26 message 32 [0 ffffffff 1 800] ------- [1:255 -1:255 32 0] 
r 1.124929139 _12_ RTR  --- 26 message 32 [0 ffffffff 1 800] ------- [1:255 -1:255 32 0] 
r 1.124929146 _9_ RTR  --- 26 message 32 [0 ffffffff 1 800] ------- [1:255 -1:255 32 0] 
r 1.124929191 _8_ RTR  --- 26 message 32 [0 ffffffff 1 800] ------- [1:255 -1:255 32 0] 
r 1.124929193 _10_ RTR  --- 26 message 32 [0 ffffffff 1 800] ------- [1:255 -1:255 32 0] 
r 1.124929215 _7_ RTR  --- 26 message 32 [0 ffffffff 1 800] ------- [1:255 -1:255 32 0] 
s 1.200000000 _0_ AGT  --- 27 cbr 512 [0 0 0 0] ------- [0:0 8:0 32 0] [2] 0 0
r 1.200000000 _0_ RTR  --- 27 cbr 512 [0 0 0 0] ------- [0:0 8:0 32 0] [2] 0 0
s 1.200000000 _0_ RTR  --- 27 cbr 532 [0 0 0 0] ------- [0:0 8:0 32 8] [2] 0 0
s 1.200000000 _1_ AGT  --- 28 cbr 512 [0 0 0 0] ------- [1:0 9:0 32 0] [2] 0 0
r 1.200000000 _1_ RTR  --- 28 cbr 512 [0 0 0 0] ------- [1:0 9:0 32 0] [2] 0 0
s 1.200000000 _2_ AGT  --- 29 cbr 512 [0 0 0 0] ------- [2:0 10:0 32 0] [2] 0 0
r 1.200000000 _2_ RTR  --- 29 cbr 512 [0 0 0 0] ------- [2:0 10:0 32 0] [2] 0 0
s 1.200000000 _3_ AGT  --- 30 cbr 512 [0 0 0 0] ------- [3:0 11:0 32 0] [2] 0 0
r 1.200000000 _3_ RTR  --- 30 cbr 512 [0 0 0 0] ------- [3:0 11:0 32 0] [2] 0 0
s 1.200000000 _4_ AGT  --- 31 cbr 512 [0 0 0 0] ------- [4:0 12:0 32 0] [2] 0 0
r 1.200000000 _4_ RTR  --- 31 cbr 512 [0 0 0 0] ------- [4:0 12:0 32 0] [2] 0 0
s 1.200000000 _4_ RTR  --- 31 cbr 532 [0 0 0 0] ------- [4:0 12:0 32 12] [2] 0 0
s 1.200000000 _5_ AGT  --- 32 cbr 512 [0 0 0 0] ------- [5:0 13:0 32 0] [2] 0 0
r 1.200000000 _5_ RTR  --- 32 cbr 512 [0 0 0 0] ------- [5:0 13:0 32 0] [2] 0 0
s 1.200000000 _5_ RTR  --- 32 cbr 532 [0 0 0 0] ------- [5:0 13:0 32 13] [2] 0 0
s 1.200000000 _6_ AGT  --- 33 cbr 512 [0 0 0 0] ------- [6:0 14:0 32 0] [2] 0 0
r 1.200000000 _6_ RTR  --- 33 cbr 512 [0 0 0 0] ------- [6:0 14:0 32 0] [2] 0 0
s 1.200000000 _7_ AGT  --- 34 cbr 512 [0 0 0 0] ------- [7:0 15:0 32 0] [2] 0 0
r 1.200000000 _7_ RTR  --- 34 cbr 512 [0 0 0 0] ------- [7:0 15:0 32 0] [2] 0 0
s 1.200000000 _7_ RTR  --- 34 cbr 532 [0 0 0 0] ------- [7:0 15:0 32 15] [2] 0 0
r 1.205657035 _13_ AGT  --- 32 cbr 532 [13a d 5 800] ------- [5:0 13:0 32 13] [2] 1 0
r 1.211479825 _8_ AGT  --- 27 cbr 532 [13a 8 0 800] ------- [0:0 8:0 32 8] [2] 1 0
r 1.217261267 _12_ AGT  --- 31 cbr 532 [13a c 4 800] ------- [4:0 12:0 32 12] [2] 1 0
r 1.223293951 _15_ AGT  --- 34 cbr 532 [13a f 7 800] ------- [7:0 15:0 32 15] [2] 1 0
s 1.280947635 _9_ RTR  --- 35 message 32 [0 0 0 0] ------- [9:255 -1:255 32 0] 
r 1.282187969 _3_ RTR  --- 35 message 32 [0 ffffffff 9 800] ------- [9:255 -1:255 32 0] 
r 1.282188043 _5_ RTR  --- 35 message 32 [0 ffffffff 9 800] ------- [9:255 -1:255 32 0] 
r 1.282188133 _15_ RTR  --- 35 message 32 [0 ffffffff 9 800] ------- [9:255 -1:255 32 0] 
r 1.282188231 _7_ RTR  --- 35 message 32 [0 ffffffff 9 800] ------- [9:255 -1:255 32 0] 
r 1.282188363 _1_ RTR  --- 35 message 32 [0 ffffffff 9 800] ------- [9:255 -1:255 32 0] 
s 1.282188363 _1_ RTR  --- 11 cbr 552 [0 0 0 0] ------- [1:0 9:0 32 9] [0] 0 0
s 1.282188363 _1_ RTR  --- 19 cbr 552 [0 0 0 0] ------- [1:0 9:0 32 9] [1] 0 0
D 1.282188363 _1_ IFQ  ARP 11 cbr 552 [0 0 1 800] ------- [1:0 9:0 32 9] [0] 0 0
s 1.282188363 _1_ RTR  --- 28 cbr 552 [0 0 0 0] ------- [1:0 9:0 32 9] [2] 0 0
D 1.282188363 _1_ IFQ  ARP 19 cbr 552 [0 0 1 800] ------- [1:0 9:0 32 9] [1] 0 0
r 1.282188381 _13_ RTR  --- 35 message 32 [0 ffffffff 9 800] ------- [9:255 -1:255 32 0] 
s 1.288935275 _14_ RTR  --- 36 message 32 [0 0 0 0] ------- [14:255 -1:255 32 0] 
r 1.295993295 _9_ AGT  --- 28 cbr 552 [13a 9 1 800] ------- [1:0 9:0 32 9] [2] 1 0
r 1.297502622 _8_ RTR  --- 36 message 32 [0 ffffffff e 800] ------- [14:255 -1:255 32 0] 
r 1.297502791 _12_ RTR  --- 36 message 32 [0 ffffffff e 800] ------- [14:255 -1:255 32 0] 
r 1.297503008 _10_ RTR  --- 36 message 32 [0 ffffffff e 800] ------- [14:255 -1:255 32 0] 
r 1.297503080 _4_ RTR  --- 36 message 32 [0 ffffffff e 800] ------- [14:255 -1:255 32 0] 
r 1.297503139 _7_ RTR  --- 36 message 32 [0 ffffffff e 800] ------- [14:255 -1:255 32 0] 
s 1.300000000 _0_ AGT  --- 37 cbr 512 [0 0 0 0] ------- [0:0 8:0 32 0] [3] 0 0
r 1.300000000 _0_ RTR  --- 37 cbr 512 [0 0 0 0] ------- [0:0 8:0 32 0] [3] 0 0
s 1.300000000 _0_ RTR  --- 37 cbr 532 [0 0 0 0] ------- [0:0 8:0 32 8] [3] 0 0
s 1.300000000 _1_ AGT  --- 38 cbr 512 [0 0 0 0] ------- [1:0 9:0 32 0] [3] 0 0
r 1.300000000 _1_ RTR  --- 38 cbr 512 [0 0 0 0] ------- [1:0 9:0 32 0] [3] 0 0
s 1.300000000 _1_ RTR  --- 38 cbr 532 [0 0 0 0] ------- [1:0 9:0 32 9] [3] 0 0
s 1.300000000 _2_ AGT  --- 39 cbr 512 [0 0 0 0] ------- [2:0 10:0 32 0] [3] 0 0
r 1.300000000 _2_ RTR  --- 39 cbr 512 [0 0 0 0] ------- [2:0 10:0 32 0] [3] 0 0
s 1.300000000 _3_ AGT  --- 40 cbr 512 [0 0 0 0] ------- [3:0 11:0 32 0] [3] 0 0
r 1.300000000 _3_ RTR  --- 40 cbr 512 [0 0 0 0] ------- [3:0 11:0 32 0] [3] 0 0
s 1.300000000 _4_ AGT  --- 41 cbr 512 [0 0 0 0] ------- [4:0 12:0 32 0] [3] 0 0
r 1.300000000 _4_ RTR  --- 41 cbr 512 [0 0 0 0] ------- [4:0 12:0 32 0] [3] 0 0
s 1.300000000 _4_ RTR  --- 41 cbr 532 [0 0 0 0] ------- [4:0 12:0 32 12] [3] 0 0
s 1.300000000 _5_ AGT  --- 42 cbr 512 [0 0 0 0] ------- [5:0 13:0 32 0] [3] 0 0
r 1.300000000 _5_ RTR  --- 42 cbr 512 [0 0 0 0] ------- [5:0 13:0 32 0] [3] 0 0
s 1.300000000 _5_ RTR  --- 42 cbr 532 [0 0 0 0] ------- [5:0 13:0 32 13] [3] 0 0
s 1.300000000 _6_ AGT  --- 43 cbr 512 [0 0 0 0] ------- [6:0 14:0 32 0] [3] 0 0
r 1.300000000 _6_ RTR  --- 43 cbr 512 [0 0 0 0] ------- [6:0 14:0 32 0] [3] 0 0
s 1.300000000 _7_ AGT  --- 44 cbr 512 [0 0 0 0] ------- [7:0 15:0 32 0] [3] 0 0
r 1.300000000 _7_ RTR  --- 44 cbr 512 [0 0 0 0] ------- [7:0 15:0 32 0] [3] 0 0
s 1.300000000 _7_ RTR  --- 44 cbr 532 [0 0 0 0] ------- [7:0 15:0 32 15] [3] 0 0
r 1.311317125 _12_ AGT  --- 41 cbr 532 [13a c 4 800] ------- [4:0 12:0 32 12] [3] 1 0
r 1.317620039 _9_ AGT  --- 38 cbr 532 [13a 9 1 800] ------- [1:0 9:0 32 9] [3] 1 0
r 1.323461479 _13_ AGT  --- 42 cbr 532 [13a d 5 800] ------- [5:0 13:0 32 13] [3] 1 0
r 1.329304269 _8_ AGT  --- 37 cbr 532 [13a 8 0 800] ------- [0:0 8:0 32 8] [3] 1 0
r 1.335396556 _15_ AGT  --- 44 cbr 532 [13a f 7 800] ------- [7:0 15:0 32 15] [3] 1 0
s 1.400000000 _0_ AGT  --- 45 cbr 512 [0 0 0 0] ------- [0:0 8:0 32 0] [4] 0 0
r 1.400000000 _0_ RTR  --- 45 cbr 512 [0 0 0 0] ------- [0:0 8:0 32 0] [4] 0 0
s 1.400000000 _0_ RTR  --- 45 cbr 532 [0 0 0 0] ------- [0:0 8:0 32 8] [4] 0 0
s 1.400000000 _1_ AGT  --- 46 cbr 512 [0 0 0 0] ------- [1:0 9:0 32 0] [4] 0 0
r 1.400000000 _1_ RTR  --- 46 cbr 512 [0 0 0 0] ------- [1:0 9:0 32 0] [4] 0 0
s 1.400000000 _1_ RTR  --- 46 cbr 532 [0 0 0 0] ------- [1:0 9:0 32 9] [4] 0 0
s 1.400000000 _2_ AGT  --- 47 cbr 512 [0 0 0 0] ------- [2:0 10:0 32 0] [4] 0 0
r 1.400000000 _2_ RTR  --- 47 cbr 512 [0 0 0 0] ------- [2:0 10:0 32 0] [4] 0 0
s 1.400000000 _3_ AGT  --- 48 cbr 512 [0 0 0 0] ------- [3:0 11:0 32 0] [4] 0 0
r 1.400000000 _3_ RTR  --- 48 cbr 512 [0 0 0 0] ------- [3:0 11:0 32 0] [4] 0 0
s 1.400000000 _4_ AGT  --- 49 cbr 512 [0 0 0 0] ------- [4:0 12:0 32 0] [4] 0 0
r 1.400000000 _4_ RTR  --- 49 cbr 512 [0 0 0 0] ------- [4:0 12:0 32 0] [4] 0 0
s 1.400000000 _4_ RTR  --- 49 cbr 532 [0 0 0 0] ------- [4:0 12:0 32 12] [4] 0 0
s 1.400000000 _5_ AGT  --- 50 cbr 512 [0 0 0 0] ------- [5:0 13:0 32 0] [4] 0 0
r 1.400000000 _5_ RTR  --- 50 cbr 512 [0 0 0 0] ------- [5:0 13:0 32 0] [4] 0 0
s 1.400000000 _5_ RTR  --- 50 cbr 532 [0 0 0 0] ------- [5:0 13:0 32 13] [4] 0 0
s 1.400000000 _6_ AGT  --- 51 cbr 512 [0 0 0 0] ------- [6:0 14:0 32 0] [4] 0 0
r 1.400000000 _6_ RTR  --- 51 cbr 512 [0 0 0 0] ------- [6:0 14:0 32 0] [4] 0 0
s 1.400000000 _7_ AGT  --- 52 cbr 512 [0 0 0 0] ------- [7:0 15:0 32 0] [4] 0 0
r 1.400000000 _7_ RTR  --- 52 cbr 512 [0 0 0 0] ------- [7:0 15:0 32 0] [4] 0 0
s 1.400000000 _7_ RTR  --- 52 cbr 532 [0 0 0 0] ------- [7:0 15:0 32 15] [4] 0 0
r 1.406364813 _9_ AGT  --- 46 cbr 532 [13a 9 1 800] ------- [1:0 9:0 32 9] [4] 1 0
r 1.412566249 _13_ AGT  --- 50 cbr 532 [13a d 5 800] ------- [5:0 13:0 32 13] [4] 1 0
r 1.418349006 _15_ AGT  --- 52 cbr 532 [13a f 7 800] ------- [7:0 15:0 32 15] [4] 1 0
r 1.424461742 _8_ AGT  --- 45 cbr 532 [13a 8 0 800] ------- [0:0 8:0 32 8] [4] 1 0
r 1.430743186 _12_ AGT  --- 49 cbr 532 [13a c 4 800] ------- [4:0 12:0 32 12] [4] 1 0
s 1.500000000 _0_ AGT  --- 53 cbr 512 [0 0 0 0] ------- [0:0 8:0 32 0] [5] 0 0
r 1.500000000 _0_ RTR  --- 53 cbr 512 [0 0 0 0] ------- [0:0 8:0 32 0] [5] 0 0
s 1.500000000 _0_ RTR  --- 53 cbr 532 [0 0 0 0] ------- [0:0 8:0 32 8] [5] 0 0
s 1.500000000 _1_ AGT  --- 54 cbr 512 [0 0 0 0] ------- [1:0 9:0 32 0] [5] 0 0
r 1.500000000 _1_ RTR  --- 54 cbr 512 [0 0 0 0] ------- [1:0 9:0 32 0] [5] 0 0
s 1.500000000 _1_ RTR  --- 54 cbr 532 [0 0 0 0] ------- [1:0 9:0 32 9] [5] 0 0
s 1.500000000 _2_ AGT  --- 55 cbr 512 [0 0 0 0] ------- [2:0 10:0 32 0] [5] 0 0
r 1.500000000 _2_ RTR  --- 55 cbr 512 [0 0 0 0] ------- [2:0 10:0 32 0] [5] 0 0
D 1.500000000 _2_ RTR  IFQ 12 cbr 532 [0 0 0 0] ------- [2:0 10:0 32 0] [0] 0 0
s 1.500000000 _3_ AGT  --- 56 cbr 512 [0 0 0 0] ------- [3:0 11:0 32 0] [5] 0 0
r 1.500000000 _3_ RTR  --- 56 cbr 512 [0 0 0 0] ------- [3:0 11:0 32 0] [5] 0 0
D 1.500000000 _3_ RTR  IFQ 13 cbr 532 [0 0 0 0] ------- [3:0 11:0 32 0] [0] 0 0
s 1.500000000 _4_ AGT  --- 57 cbr 512 [0 0 0 0] ------- [4:0 12:0 32 0] [5] 0 0
r 1.500000000 _4_ RTR  --- 57 cbr 512 [0 0 0 0] ------- [4:0 12:0 32 0] [5] 0 0
s 1.500000000 _4_ RTR  --- 57 cbr 532 [0 0 0 0] ------- [4:0 12:0 32 12] [5] 0 0
s 1.500000000 _5_ AGT  --- 58 cbr 512 [0 0 0 0] ------- [5:0 13:0 32 0] [5] 0 0
r 1.500000000 _5_ RTR  --- 58 cbr 512 [0 0 0 0] ------- [5:0 13:0 32 0] [5] 0 0
s 1.500000000 _5_ RTR  --- 58 cbr 532 [0 0 0 0] ------- [5:0 13:0 32 13] [5] 0 0
s 1.500000000 _6_ AGT  --- 59 cbr 512 [0 0 0 0] ------- [6:0 14:0 32 0] [5] 0 0
r 1.500000000 _6_ RTR  --- 59 cbr 512 [0 0 0 0] ------- [6:0 14:0 32 0] [5] 0 0
D 1.500000000 _6_ RTR  IFQ 16 cbr 532 [0 0 0 0] ------- [6:0 14:0 32 0] [0] 0 0
s 1.500000000 _7_ AGT  --- 60 cbr 512 [0 0 0 0] ------- [7:0 15:0 32 0] [5] 0 0
r 1.500000000 _7_ RTR  --- 60 cbr 512 [0 0 0 0] ------- [7:0 15:0 32 0] [5] 0 0
s 1.500000000 _7_ RTR  --- 60 cbr 532 [0 0 0 0] ------- [7:0 15:0 32 15] [5] 0 0
r 1.505496869 _12_ AGT  --- 57 cbr 532 [13a c 4 800] ------- [4:0 12:0 32 12] [5] 1 0
r 1.511359710 _8_ AGT  --- 53 cbr 532 [13a 8 0 800] ------- [0:0 8:0 32 8] [5] 1 0
r 1.517202668 _9_ AGT  --- 54 cbr 532 [13a 9 1 800] ------- [1:0 9:0 32 9] [5] 1 0
r 1.523264099 _13_ AGT  --- 58 cbr 532 [13a d 5 800] ------- [5:0 13:0 32 13] [5] 1 0
r 1.529166848 _15_ AGT  --- 60 cbr 532 [13a f 7 800] ------- [7:0 15:0 32 15] [5] 1 0
s 1.600000000 _0_ AGT  --- 62 cbr 512 [0 0 0 0] ------- [0:0 8:0 32 0] [6] 0 0
r 1.600000000 _0_ RTR  --- 62 cbr 512 [0 0 0 0] ------- [0:0 8:0 32 0] [6] 0 0
s 1.600000000 _0_ RTR  --- 62 cbr 532 [0 0 0 0] ------- [0:0 8:0 32 8] [6] 0 0
s 1.600000000 _1_ AGT  --- 63 cbr 512 [0 0 0 0] ------- [1:0 9:0 32 0] [6] 0 0
r 1.600000000 _1_ RTR  --- 63 cbr 512 [0 0 0 0] ------- [1:0 9:0 32 0] [6] 0 0
s 1.600000000 _1_ RTR  --- 63 cbr 532 [0 0 0 0] ------- [1:0 9:0 32 9] [6] 0 0
s 1.600000000 _2_ AGT  --- 64 cbr 512 [0 0 0 0] ------- [2:0 10:0 32 0] [6] 0 0
r 1.600000000 _2_ RTR  --- 64 cbr 512 [0 0 0 0] ------- [2:0 10:0 32 0] [6] 0 0
D 1.600000000 _2_ RTR  IFQ 20 cbr 532 [0 0 0 0] ------- [2:0 10:0 32 0] [1] 0 0
s 1.600000000 _3_ AGT  --- 65 cbr 512 [0 0 0 0] ------- [3:0 11:0 32 0] [6] 0 0
r 1.600000000 _3_ RTR  --- 65 cbr 512 [0 0 0 0] ------- [3:0 11:0 32 0] [6] 0 0
D 1.600000000 _3_ RTR  IFQ 21 cbr 532 [0 0 0 0] ------- [3:0 11:0 32 0] [1] 0 0
s 1.600000000 _4_ AGT  --- 66 cbr 512 [0 0 0 0] ------- [4:0 12:0 32 0] [6] 0 0
r 1.600000000 _4_ RTR  --- 66 cbr 512 [0 0 0 0] ------- [4:0 12:0 32 0] [6] 0 0
s 1.600000000 _4_ RTR  --- 66 cbr 532 [0 0 0 0] ------- [4:0 12:0 32 12] [6] 0 0
s 1.600000000 _5_ AGT  --- 67 cbr 512 [0 0 0 0] ------- [5:0 13:0 32 0] [6] 0 0
r 1.600000000 _5_ RTR  --- 67 cbr 512 [0 0 0 0] ------- [5:0 13:0 32 0] [6] 0 0
s 1.600000000 _5_ RTR  --- 67 cbr 532 [0 0 0 0] ------- [5:0 13:0 32 13] [6] 0 0
s 1.600000000 _6_ AGT  --- 68 cbr 512 [0 0 0 0] ------- [6:0 14:0 32 0] [6] 0 0
r 1.600000000 _6_ RTR  --- 68 cbr 512 [0 0 0 0] ------- [6:0 14:0 32 0] [6] 0 0
D 1.600000000 _6_ RTR  IFQ 24 cbr 532 [0 0 0 0] ------- [6:0 14:0 32 0] [1] 0 0
s 1.600000000 _7_ AGT  --- 69 cbr 512 [0 0 0 0] ------- [7:0 15:0 32 0] [6] 0 0
r 1.600000000 _7_ RTR  --- 69 cbr 512 [0 0 0 0] ------- [7:0 15:0 32 0] [6] 0 0
s 1.600000000 _7_ RTR  --- 69 cbr 532 [0 0 0 0] ------- [7:0 15:0 32 15] [6] 0 0
r 1.605537022 _13_ AGT  --- 67 cbr 532 [13a d 5 800] ------- [5:0 13:0 32 13] [6] 1 0
s 1.608029213 _5_ RTR  --- 61 message 32 [0 0 0 0] ------- [5:255 -1:255 32 0] 
r 1.611399815 _8_ AGT  --- 62 cbr 532 [13a 8 0 800] ------- [0:0 8:0 32 8] [6] 1 0
r 1.612744692 _15_ RTR  --- 61 message 32 [0 ffffffff 5 800] ------- [5:255 -1:255 32 0] 
r 1.612744715 _3_ RTR  --- 61 message 32 [0 ffffffff 5 800] ------- [5:255 -1:255 32 0] 
r 1.612744904 _1_ RTR  --- 61 message 32 [0 ffffffff 5 800] ------- [5:255 -1:255 32 0] 
r 1.612744913 _13_ RTR  --- 61 message 32 [0 ffffffff 5 800] ------- [5:255 -1:255 32 0] 
r 1.612744979 _9_ RTR  --- 61 message 32 [0 ffffffff 5 800] ------- [5:255 -1:255 32 0] 
r 1.612745123 _7_ RTR  --- 61 message 32 [0 ffffffff 5 800] ------- [5:255 -1:255 32 0] 
r 1.612745330 _8_ RTR  --- 61 message 32 [0 ffffffff 5 800] ------- [5:255 -1:255 32 0] 
r 1.612745370 _0_ RTR  --- 61 message 32 [0 ffffffff 5 800] ------- [5:255 -1:255 32 0] 
r 1.619298977 _12_ AGT  --- 66 cbr 532 [13a c 4 800] ------- [4:0 12:0 32 12] [6] 1 0
r 1.625491630 _15_ AGT  --- 69 cbr 532 [13a f 7 800] ------- [7:0 15:0 32 15] [6] 1 0
r 1.631294024 _9_ AGT  --- 63 cbr 532 [13a 9 1 800] ------- [1:0 9:0 32 9] [6] 1 0
s 1.641497658 _7_ RTR  --- 70 message 32 [0 0 0 0] ------- [7:255 -1:255 32 0] 
r 1.642818083 _3_ RTR  --- 70 message 32 [0 ffffffff 7 800] ------- [7:255 -1:255 32 0] 
r 1.642818195 _8_ RTR  --- 70 message 32 [0 ffffffff 7 800] ------- [7:255 -1:255 32 0] 
r 1.642818207 _5_ RTR  --- 70 message 32 [0 ffffffff 7 800] ------- [7:255 -1:255 32 0] 
r 1.642818245 _9_ RTR  --- 70 message 32 [0 ffffffff 7 800] ------- [7:255 -1:255 32 0] 
r 1.642818310 _15_ RTR  --- 70 message 32 [0 ffffffff 7 800] ------- [7:255 -1:255 32 0] 
r 1.642818322 _14_ RTR  --- 70 message 32 [0 ffffffff 7 800] ------- [7:255 -1:255 32 0] 
r 1.642818440 _13_ RTR  --- 70 message 32 [0 ffffffff 7 800] ------- [7:255 -1:255 32 0] 
r 1.642818452 _1_ RTR  --- 70 message 32 [0 ffffffff 7 800] ------- [7:255 -1:255 32 0] 
r 1.642818462 _12_ RTR  --- 70 message 32 [0 ffffffff 7 800] ------- [7:255 -1:255 32 0] 
s 1.673062804 _11_ RTR  --- 71 message 32 [0 0 0 0] ------- [11:255 -1:255 32 0] 
r 1.674442960 _2_ RTR  --- 71 message 32 [0 ffffffff b 800] ------- [11:255 -1:255 32 0] 
r 1.674442985 _6_ RTR  --- 71 message 32 [0 ffffffff b 800] ------- [11:255 -1:255 32 0] 
r 1.674443501 _1_ RTR  --- 71 message 32 [0 ffffffff b 800] ------- [11:255 -1:255 32 0] 
r 1.674443517 _13_ RTR  --- 71 message 32 [0 ffffffff b 800] ------- [11:255 -1:255 32 0] 
r 1.674443537 _0_ RTR  --- 71 message 32 [0 ffffffff b 800] ------- [11:255 -1:255 32 0] 
s 1.700000000 _0_ AGT  --- 72 cbr 512 [0 0 0 0] ------- [0:0 8:0 32 0] [7] 0 0
r 1.700000000 _0_ RTR  --- 72 cbr 512 [0 0 0 0] ------- [0:0 8:0 32 0] [7] 0 0
s 1.700000000 _0_ RTR  --- 72 cbr 532 [0 0 0 0] ------- [0:0 8:0 32 8] [7] 0 0
s 1.700000000 _1_ AGT  --- 73 cbr 512 [0 0 0 0] ------- [1:0 9:0 32 0] [7] 0 0
r 1.700000000 _1_ RTR  --- 73 cbr 512 [0 0 0 0] ------- [1:0 9:0 32 0] [7] 0 0
s 1.700000000 _1_ RTR  --- 73 cbr 532 [0 0 0 0] ------- [1:0 9:0 32 9] [7] 0 0
s 1.700000000 _2_ AGT  --- 74 cbr 512 [0 0 0 0] ------- [2:0 10:0 32 0] [7] 0 0
r 1.700000000 _2_ RTR  --- 74 cbr 512 [0 0 0 0] ------- [2:0 10:0 32 0] [7] 0 0